HEADER
"PSFversion" "1.00"
"Log Generator" "drlLog rev. 1.0"
"Log Time Stamp" "Mon Mar 15 21:54:51 2021"
"simulator" "ams"
"version" "18.1.0.394.isr8"
"date" "9:54:51 PM, Mon Mar 15, 2021"
"design" "(no title)"
"signalNameType" "spectre"
"simMode" "Mixed-signal"
"measdgt" 0
"ingold" 2
"sst2usecolon" 0
TYPE
"analysisInst" STRUCT(
"analysisType" STRING *
"dataFile" STRING *
"format" STRING *
"parent" STRING *
"sweepVariable" ARRAY ( * ) STRING *
"description" STRING *
)
VALUE
END
